<?xml version='1.0' encoding='utf-8'?>
<configuration xmlns_xsi="http://www.w3.org/2001/XMLSchema-instance" xsi_noNamespaceSchemaLocation="http://sumo.dlr.de/xsd/sumoConfiguration.xsd"><input><net-file value="vehicular_fl.net.xml" /><route-files value="vehicular_fl.rou.xml" /><additional-files value="vehicular_fl.add.xml" /></input><time><begin value="0" /><end value="3600" /><step-length value="1.0" /></time><output><fcd-output value="vehicular_fl_fcd.xml" /><tripinfo-output value="vehicular_fl_tripinfo.xml" /><summary-output value="vehicular_fl_summary.xml" /></output><processing><collision.action value="warn" /><time-to-teleport value="300" /></processing><traci_server><remote-port value="8813" /></traci_server></configuration>